# vtk DataFile Version 1.0
FinEtools Export
ASCII

DATASET UNSTRUCTURED_GRID
POINTS 3495 double
0.0 0.0 0.0
0.09999999999999998 0.0 0.0
0.19999999999999996 0.0 0.0
0.3 0.0 0.0
0.39999999999999997 0.0 0.0
0.5 0.0 0.0
0.6 0.0 0.0
0.7000000000000001 0.0 0.0
0.7999999999999999 0.0 0.0
0.8999999999999999 0.0 0.0
1.0 0.0 0.0
1.0999999999999999 0.0 0.0
1.2 0.0 0.0
0.0 0.09999999999999994 0.0
0.09999999999999998 0.09999999999999994 0.0
0.19999999999999996 0.09999999999999995 0.0
0.3 0.09999999999999994 0.0
0.39999999999999997 0.09999999999999994 0.0
0.5 0.09999999999999994 0.0
0.6 0.09999999999999994 0.0
0.7 0.09999999999999994 0.0
0.7999999999999999 0.09999999999999994 0.0
0.8999999999999999 0.09999999999999994 0.0
1.0 0.09999999999999994 0.0
1.1 0.09999999999999992 0.0
1.2 0.09999999999999994 0.0
0.0 0.2 0.0
0.09999999999999999 0.20000000000000004 0.0
0.19999999999999998 0.2 0.0
0.3 0.2 0.0
0.4 0.2 0.0
0.5 0.2 0.0
0.6 0.2 0.0
0.7000000000000001 0.2 0.0
0.8 0.2 0.0
0.8999999999999999 0.20000000000000004 0.0
1.0 0.2 0.0
1.0999999999999999 0.2 0.0
1.2 0.2 0.0
0.0 0.3000000000000001 0.0
0.09999999999999996 0.3000000000000001 0.0
0.19999999999999993 0.3000000000000001 0.0
0.3 0.3000000000000001 0.0
0.3999999999999999 0.3000000000000001 0.0
0.5000000000000001 0.3000000000000001 0.0
0.6 0.3000000000000001 0.0
0.7000000000000001 0.3000000000000001 0.0
0.7999999999999998 0.3000000000000001 0.0
0.9 0.3000000000000001 0.0
1.0000000000000002 0.3000000000000001 0.0
1.0999999999999999 0.3000000000000001 0.0
1.2 0.3000000000000001 0.0
0.0 0.4 0.0
0.09999999999999998 0.4000000000000001 0.0
0.19999999999999996 0.4 0.0
0.3 0.4 0.0
0.39999999999999997 0.4 0.0
0.5 0.4 0.0
0.6 0.4 0.0
0.7000000000000001 0.4 0.0
0.7999999999999999 0.4 0.0
0.8999999999999999 0.4000000000000001 0.0
1.0 0.4 0.0
1.0999999999999999 0.4 0.0
1.2 0.4 0.0
0.0 0.5 0.0
0.09999999999999996 0.5 0.0
0.19999999999999993 0.49999999999999994 0.0
0.3 0.5 0.0
0.39999999999999997 0.5 0.0
0.5 0.49999999999999994 0.0
0.6 0.5 0.0
0.7 0.49999999999999994 0.0
0.7999999999999999 0.5 0.0
0.9 0.5 0.0
1.0 0.49999999999999994 0.0
1.1 0.5 0.0
1.2 0.5 0.0
0.0 0.6000000000000001 0.0
0.09999999999999998 0.6000000000000001 0.0
0.19999999999999996 0.6000000000000001 0.0
0.29999999999999993 0.6 0.0
0.39999999999999997 0.6000000000000001 0.0
0.49999999999999994 0.6 0.0
0.5999999999999999 0.6000000000000001 0.0
0.7 0.6000000000000001 0.0
0.7999999999999999 0.6000000000000001 0.0
0.8999999999999999 0.6 0.0
0.9999999999999999 0.6 0.0
1.0999999999999999 0.6000000000000001 0.0
1.1999999999999997 0.6000000000000001 0.0
0.0 0.7 0.0
0.09999999999999998 0.7000000000000001 0.0
0.19999999999999996 0.7000000000000001 0.0
0.30000000000000004 0.7000000000000001 0.0
0.4 0.7 0.0
0.5 0.7 0.0
0.6000000000000001 0.7 0.0
0.7000000000000001 0.7 0.0
0.8 0.7 0.0
0.9 0.7000000000000001 0.0
1.0 0.7 0.0
1.1 0.7 0.0
1.2000000000000002 0.7 0.0
0.0 0.8 0.0
0.09999999999999996 0.8000000000000002 0.0
0.19999999999999993 0.8 0.0
0.3 0.8 0.0
0.39999999999999997 0.8 0.0
0.5000000000000001 0.8 0.0
0.6 0.8 0.0
0.7000000000000001 0.8 0.0
0.7999999999999999 0.8 0.0
0.8999999999999999 0.8000000000000002 0.0
1.0000000000000002 0.8 0.0
1.0999999999999999 0.8 0.0
1.2 0.8 0.0
0.0 0.9 0.0
0.09999999999999996 0.9000000000000001 0.0
0.19999999999999993 0.9 0.0
0.3 0.8999999999999999 0.0
0.4 0.9 0.0
0.5 0.9 0.0
0.6 0.9 0.0
0.7000000000000001 0.9 0.0
0.8 0.9 0.0
0.8999999999999999 0.8999999999999999 0.0
1.0 0.9 0.0
1.0999999999999999 0.9 0.0
1.2 0.9 0.0
0.0 1.0 0.0
0.09999999999999998 1.0 0.0
0.19999999999999996 1.0 0.0
0.3 1.0 0.0
0.39999999999999997 1.0 0.0
0.5 1.0 0.0
0.6 1.0 0.0
0.7000000000000001 1.0000000000000002 0.0
0.7999999999999999 1.0 0.0
0.9 1.0000000000000002 0.0
1.0 1.0000000000000002 0.0
1.0999999999999999 1.0000000000000002 0.0
1.2 1.0 0.0
0.0 1.1 0.0
0.09999999999999996 1.1 0.0
0.19999999999999993 1.1 0.0
0.3 1.1 0.0
0.39999999999999997 1.1 0.0
0.5 1.0999999999999999 0.0
0.6 1.1 0.0
0.7 1.1 0.0
0.7999999999999999 1.1 0.0
0.8999999999999999 1.0999999999999999 0.0
1.0 1.1 0.0
1.0999999999999999 1.1 0.0
1.2 1.1 0.0
0.0 1.2000000000000002 0.0
0.09999999999999998 1.2000000000000002 0.0
0.19999999999999996 1.2000000000000002 0.0
0.3 1.2 0.0
0.39999999999999997 1.2000000000000002 0.0
0.5 1.2 0.0
0.6 1.2000000000000002 0.0
0.7000000000000001 1.2000000000000002 0.0
0.7999999999999999 1.2000000000000002 0.0
0.9 1.2 0.0
1.0 1.2 0.0
1.0999999999999999 1.2000000000000002 0.0
1.2 1.2000000000000002 0.0
0.0 1.3 0.0
0.09999999999999998 1.3 0.0
0.19999999999999996 1.3 0.0
0.3 1.3 0.0
0.39999999999999997 1.3 0.0
0.5 1.3 0.0
0.6 1.3 0.0
0.7000000000000001 1.3 0.0
0.7999999999999999 1.3 0.0
0.8999999999999999 1.3 0.0
1.0 1.3 0.0
1.0999999999999999 1.3 0.0
1.2 1.3 0.0
0.0 1.4 0.0
0.09999999999999998 1.4000000000000001 0.0
0.19999999999999996 1.4000000000000001 0.0
0.3 1.4000000000000001 0.0
0.39999999999999997 1.4 0.0
0.5 1.4 0.0
0.6 1.4 0.0
0.7 1.4 0.0
0.7999999999999999 1.4 0.0
0.8999999999999999 1.4000000000000001 0.0
1.0 1.4 0.0
1.0999999999999999 1.4 0.0
1.2 1.4 0.0
0.0 1.5 0.0
0.09999999999999998 1.5 0.0
0.19999999999999996 1.4999999999999998 0.0
0.3 1.5 0.0
0.39999999999999997 1.5 0.0
0.5 1.4999999999999998 0.0
0.6 1.5 0.0
0.7 1.5 0.0
0.7999999999999999 1.5 0.0
0.9 1.5 0.0
1.0 1.5 0.0
1.0999999999999999 1.4999999999999998 0.0
1.2 1.5 0.0
0.0 1.6 0.0
0.09999999999999998 1.6000000000000003 0.0
0.19999999999999996 1.6 0.0
0.3 1.6 0.0
0.39999999999999997 1.6 0.0
0.5 1.6 0.0
0.6 1.6 0.0
0.7000000000000001 1.6 0.0
0.7999999999999999 1.6 0.0
0.8999999999999999 1.6000000000000003 0.0
1.0 1.6 0.0
1.0999999999999999 1.6 0.0
1.2 1.6 0.0
0.0 1.7000000000000002 0.0
0.09999999999999996 1.7000000000000002 0.0
0.19999999999999993 1.7000000000000002 0.0
0.3 1.7000000000000002 0.0
0.39999999999999997 1.7000000000000002 0.0
0.5 1.7000000000000002 0.0
0.6 1.7000000000000002 0.0
0.7000000000000001 1.7000000000000002 0.0
0.7999999999999999 1.7000000000000002 0.0
0.9 1.7000000000000002 0.0
1.0 1.7000000000000002 0.0
1.0999999999999999 1.7000000000000002 0.0
1.2 1.7000000000000002 0.0
0.0 1.8 0.0
0.09999999999999998 1.8000000000000003 0.0
0.19999999999999996 1.8 0.0
0.3 1.7999999999999998 0.0
0.39999999999999997 1.8 0.0
0.5 1.8 0.0
0.6 1.8 0.0
0.7000000000000001 1.8 0.0
0.7999999999999999 1.8 0.0
0.8999999999999999 1.7999999999999998 0.0
1.0 1.8 0.0
1.0999999999999999 1.8 0.0
1.2 1.8 0.0
0.0 1.9 0.0
0.09999999999999998 1.9000000000000001 0.0
0.19999999999999996 1.9 0.0
0.3 1.9 0.0
0.39999999999999997 1.9000000000000001 0.0
0.5 1.9 0.0
0.6 1.9 0.0
0.7 1.9 0.0
0.7999999999999999 1.9 0.0
0.8999999999999999 1.9 0.0
1.0 1.9 0.0
1.0999999999999999 1.9000000000000001 0.0
1.2 1.9 0.0
0.0 2.0 0.0
0.09999999999999998 2.0 0.0
0.19999999999999996 2.0 0.0
0.3 2.0 0.0
0.3999999999999999 2.0 0.0
0.5 2.0 0.0
0.6 2.0 0.0
0.7000000000000001 2.0000000000000004 0.0
0.7999999999999998 2.0 0.0
0.9 2.0000000000000004 0.0
1.0 2.0000000000000004 0.0
1.0999999999999999 2.0000000000000004 0.0
1.2 2.0 0.0
0.0 2.1 0.0
0.09999999999999996 2.1 0.0
0.19999999999999993 2.1 0.0
0.3 2.1 0.0
0.39999999999999997 2.1 0.0
0.5 2.1 0.0
0.6 2.1 0.0
0.7000000000000001 2.1 0.0
0.7999999999999999 2.1 0.0
0.9 2.1 0.0
1.0 2.1 0.0
1.1 2.1 0.0
1.2 2.1 0.0
0.0 2.2 0.0
0.09999999999999998 2.2 0.0
0.19999999999999996 2.2 0.0
0.3 2.2 0.0
0.39999999999999997 2.2 0.0
0.5 2.1999999999999997 0.0
0.6 2.2 0.0
0.7000000000000001 2.2 0.0
0.7999999999999999 2.2 0.0
0.8999999999999999 2.1999999999999997 0.0
1.0 2.2 0.0
1.0999999999999999 2.2 0.0
1.2 2.2 0.0
0.0 2.3 0.0
0.09999999999999996 2.3 0.0
0.19999999999999993 2.3 0.0
0.3 2.3 0.0
0.3999999999999999 2.3 0.0
0.5 2.3 0.0
0.6 2.3 0.0
0.7000000000000001 2.3000000000000003 0.0
0.7999999999999998 2.3 0.0
0.9 2.3000000000000003 0.0
1.0 2.3 0.0
1.0999999999999999 2.3 0.0
1.2 2.3 0.0
0.0 2.4000000000000004 0.0
0.09999999999999998 2.4000000000000004 0.0
0.19999999999999996 2.4000000000000004 0.0
0.3 2.4 0.0
0.39999999999999997 2.4000000000000004 0.0
0.5 2.4 0.0
0.6 2.4000000000000004 0.0
0.7000000000000001 2.4000000000000004 0.0
0.7999999999999999 2.4000000000000004 0.0
0.8999999999999999 2.4 0.0
1.0 2.4 0.0
1.0999999999999999 2.4000000000000004 0.0
1.2 2.4000000000000004 0.0
0.0 2.5 0.0
0.09999999999999996 2.5000000000000004 0.0
0.19999999999999993 2.5 0.0
0.3 2.5 0.0
0.39999999999999997 2.5 0.0
0.5 2.5 0.0
0.6 2.5 0.0
0.7 2.5 0.0
0.7999999999999999 2.5 0.0
0.8999999999999999 2.5 0.0
1.0 2.5 0.0
1.0999999999999999 2.5 0.0
1.2 2.5 0.0
0.0 2.6 0.0
0.09999999999999998 2.6 0.0
0.19999999999999996 2.6 0.0
0.3 2.6 0.0
0.39999999999999997 2.6 0.0
0.5 2.6 0.0
0.6 2.6 0.0
0.7000000000000001 2.6 0.0
0.7999999999999999 2.6 0.0
0.8999999999999999 2.6 0.0
1.0 2.6 0.0
1.0999999999999999 2.6 0.0
1.2 2.6 0.0
1.6 5.0 0.0
1.6844827586206896 5.0 0.0
1.7689655172413794 5.0 0.0
1.8534482758620692 5.0 0.0
1.9379310344827587 4.999999999999999 0.0
2.0224137931034485 5.0 0.0
2.106896551724138 5.0 0.0
2.1913793103448276 5.0 0.0
2.2758620689655173 5.0 0.0
2.360344827586207 5.0 0.0
2.444827586206897 5.0 0.0
2.529310344827586 5.0 0.0
2.613793103448276 5.0 0.0
2.6982758620689653 5.0 0.0
2.782758620689655 5.0 0.0
2.867241379310345 5.0 0.0
2.9517241379310346 5.0 0.0
3.036206896551724 5.0 0.0
3.1206896551724137 5.0 0.0
3.2051724137931035 5.0 0.0
3.2896551724137932 5.0 0.0
3.3741379310344826 5.0 0.0
3.4586206896551723 5.0 0.0
3.543103448275862 5.0 0.0
3.6275862068965514 5.0 0.0
3.712068965517241 5.0 0.0
3.796551724137931 5.0 0.0
3.8810344827586203 5.0 0.0
3.9655172413793105 5.0 0.0
4.05 5.0 0.0
1.6000000000000003 5.116666666666667 0.0
1.6844827586206896 5.116666666666666 0.0
1.7689655172413794 5.116666666666666 0.0
1.853448275862069 5.116666666666666 0.0
1.937931034482759 5.116666666666667 0.0
2.022413793103449 5.116666666666667 0.0
2.1068965517241383 5.116666666666667 0.0
2.1913793103448276 5.116666666666666 0.0
2.275862068965518 5.116666666666667 0.0
2.360344827586207 5.116666666666668 0.0
2.444827586206897 5.116666666666667 0.0
2.5293103448275867 5.116666666666667 0.0
[...]
POINT_DATA 3495
SCALARS realP double
LOOKUP_TABLE default
-9.917085492199115e-52
4.5698258160596467e-51
-1.9775190325067502e-50
6.90821344612309e-50
-1.912658084850973e-49
3.265007531637901e-49
4.605934712765764e-49
-7.438547210397404e-48
4.148500647217298e-47
-1.6160704267714817e-46
4.478828123870502e-46
-6.2898623233535135e-46
-1.2704772393214195e-45
-6.3740493631683064e-52
-7.649421775328927e-51
4.41305127872752e-50
-1.8450133209803578e-49
6.300055071698225e-49
-1.6579584556587212e-48
2.2649435931678322e-48
8.043608791323142e-48
-8.273774515605997e-47
4.1133813470482495e-46
-1.4075456301387733e-45
2.917895196263875e-45
7.23680867594755e-46
1.1550794150592295e-50
1.3611512883565317e-50
-1.2891641111733286e-49
6.417051406267726e-49
-2.5276121295451412e-48
7.990164274146795e-48
-1.7801466639550513e-47
5.70988789391017e-48
2.07976056503206e-46
-1.3788111184954777e-45
5.552958726598976e-45
-1.3939776902670837e-44
5.1858840050972186e-45
-7.201491294809208e-50
5.583272537160235e-51
3.2050736746446726e-49
-2.06494907609479e-48
9.443380076670106e-48
-3.4413965116093686e-47
9.621791613847164e-47
-1.4994385651195052e-46
-3.671733467971746e-46
4.331841571379161e-45
-2.1033805991866582e-44
6.196885817499288e-44
-4.833964780829204e-44
3.554183866863632e-49
-2.3894210759937095e-49
-4.548422195092485e-49
5.704077721958401e-48
-3.214470195102828e-47
1.3556373437280063e-46
-4.479067910491818e-46
1.0309208356192546e-45
-3.8613227982588045e-46
-1.1702294960174753e-44
7.46706190354002e-44
-2.593966736138297e-43
2.920573056858461e-43
-1.533232492557629e-48
1.6590539725068114e-48
-1.397340804565509e-48
-1.128503924134647e-47
9.627581084458657e-47
-4.878632552321015e-46
1.8796433359289312e-45
-5.423572501194781e-45
8.477369027112216e-45
2.1964470161381595e-44
-2.4288893621492396e-43
1.0242493758439817e-42
-1.503305828890166e-42
5.926194128738308e-48
-8.538952163636922e-48
1.6880007778683394e-47
-1.8768735347271025e-48
-2.288664568844353e-46
1.570311175179946e-45
-7.186095795336487e-45
2.4768157417144613e-44
-5.756106850317704e-44
1.4182172885960108e-44
6.872750431035988e-43
-3.7903577029570335e-42
7.051611559550458e-42
-2.039751531378326e-47
3.7384612804657015e-47
-1.0192055174616078e-46
1.80621664170912e-46
2.4331227415474674e-46
-4.247569825954379e-45
2.479350206618481e-44
-1.0173295151192763e-43
3.0050212572723964e-43
-4.448231844477734e-43
-1.4334989941523494e-42
1.2916053642779104e-41
-3.0916148273879125e-41
5.985345893346676e-47
-1.4353513137558958e-46
4.878414730167926e-46
-1.2832070023263275e-45
1.628595673202805e-45
7.631866260775247e-45
-7.437361627400629e-44
3.7765228706040665e-43
-1.3590642107931447e-42
3.1216547354089854e-42
1.1303965497319086e-43
-3.8877868712829796e-41
1.2792224528237427e-40
-1.2731404870428764e-46
4.7629285122444306e-46
-2.0055896026312517e-45
6.599966289280015e-45
-1.5440857877901478e-44
7.828389669207002e-45
1.7232489877060895e-43
-1.2434700543437052e-42
5.498739070464854e-42
-1.651300761802035e-41
2.1722549250271309e-41
9.163606579489118e-41
-5.000197583404463e-40
5.886054526979756e-48
-1.2572825838926795e-45
7.134854537610837e-45
-2.845002991900376e-44
8.735654287513247e-44
-1.7095715256562102e-43
-1.3930139771934266e-43
3.4106970052016806e-42
-1.9904627982319354e-41
7.505412294230693e-41
-1.6645950316855955e-40
-7.642022051417599e-41
1.833828739726083e-39
2.003199933423084e-45
1.687201232833638e-45
-2.091004598488649e-44
1.0543862580211593e-43
-3.980612615395811e-43
1.1181552846614258e-42
-1.5796052760122683e-42
-6.099680760270435e-42
6.258568716430442e-41
-3.0300066563359267e-40
9.147112113493376e-40
-9.016547093203e-40
-6.197855857747327e-39
-1.5334327470369914e-44
8.12104643485202e-45
4.017762778741642e-44
-3.2456634291577524e-43
1.5408481207988167e-42
-5.4733634648829135e-42
1.350047492998229e-41
-7.255468322919766e-42
-1.5475324236582802e-40
1.0835878326149602e-39
-4.2532606339990105e-39
8.157787578233344e-39
1.850109896997782e-38
8.446158962640974e-44
-9.098189016193774e-44
4.4194306421231743e-44
6.976815957733914e-43
-4.9669288566124577e-42
2.228645558151582e-41
-7.306570074812398e-41
1.443390970324533e-40
1.7365068529786875e-40
-3.301249732765179e-39
1.7393202723218741e-38
-4.755932197728364e-38
-4.309133426454402e-38
-3.9649807267072705e-43
5.653839671338307e-43
-1.0168180301855506e-42
1.6084911592701416e-43
1.1627910820867165e-41
-7.535962940682574e-41
3.1655440125278844e-40
-9.221315541343837e-40
1.0902266265886365e-39
7.453625051612248e-39
-6.2253147568524e-38
2.2771935704623204e-37
3.3410602219832796e-38
1.6653615519401517e-42
-2.8362331868903102e-42
7.061417778138995e-42
-1.3062287860520984e-41
-3.944562522881593e-42
1.8985441408442936e-40
-1.127042193435307e-39
4.348315340355907e-39
-1.0368471034746295e-38
-3.418537677448791e-39
1.852098293892192e-37
-9.382775199665328e-37
4.39817309624525e-37
-6.360885604013096e-42
1.2436460796251328e-41
-3.7104577384865763e-41
9.726734007830125e-41
-1.6876844496361505e-40
-1.4488227020019765e-40
3.0298122530272195e-39
-1.6467079347695054e-38
5.641291755719421e-38
-8.881175713256554e-38
-3.7268096949279903e-37
3.2771875433904065e-36
-3.896401226936932e-36
2.2124188564776157e-41
-4.887561995615143e-41
1.665216740566227e-40
-5.23507450241548e-40
1.3566319623663813e-39
-2.1832560141066968e-39
-3.2671527125259235e-39
4.727667705990397e-38
-2.342792524548138e-37
6.760804229618975e-37
-2.3371654353789622e-37
-8.780282525051058e-36
2.2402653661231444e-35
-6.936811110553022e-41
1.7294558783493909e-40
-6.613026538396985e-40
2.3684304457476643e-39
-7.478593373926198e-39
1.9153644950751995e-38
-2.8468088656270454e-38
-6.400163764570914e-38
7.38497837554581e-37
-3.334182474787654e-36
7.650360760765983e-36
9.63757880624516e-36
-1.0498908598368219e-34
1.9105048682970475e-40
-5.4670121273116765e-40
2.344883972045026e-39
-9.38928471551174e-39
3.405272408731538e-38
-1.081380346536005e-37
2.7371943364379096e-37
-3.6140093087343903e-37
-1.3011864394570318e-36
1.2380704709596798e-35
-5.08170526351261e-35
7.992207616192771e-35
4.139746123889806e-34
-4.3395435410758945e-40
1.515006043066011e-39
-7.40658760088404e-39
3.3007303516865684e-38
-1.3430476731066188e-37
4.93617651579729e-37
-1.573438738168999e-36
3.857088116030308e-36
-3.5915397456775526e-36
-3.104678839333062e-35
2.329218210074638e-34
-7.488342564721308e-34
-1.2977978353009737e-33
6.462683251031294e-40
-3.567010867048322e-39
2.0779609025205706e-38
-1.033099256518262e-37
4.654081759585687e-37
-1.9184271413268197e-36
7.108105968717153e-36
-2.235450032782587e-35
4.947729314447505e-35
4.77524449956511e-36
-7.683757614936846e-34
3.923873639413294e-33
2.338651188426953e-33
5.892074796720386e-40
6.769545746514683e-39
-5.284725811978205e-38
2.9325373153402487e-37
-1.4329426137454037e-36
6.429821099461295e-36
-2.651942916822832e-35
9.757079677150124e-35
-2.9348038139116663e-34
5.136597587353208e-34
1.2151087340430144e-33
-1.3618127715829624e-32
6.635029605708037e-33
-1.1537548469726539e-38
-7.978226905052362e-39
1.3175852255447192e-37
-8.108375971224111e-37
4.098148535879227e-36
-1.8882913694130888e-35
8.185352796914046e-35
-3.3303172883827607e-34
1.2255231755464678e-33
-3.6791472499225325e-33
6.070294150050085e-33
1.6327813429958266e-32
-9.387601581159678e-32
8.203271264679984e-38
-3.3638080008154987e-38
-3.1125907947155974e-37
2.378119065893904e-36
-1.215945847621577e-35
5.312130427743136e-35
-2.168977249309808e-34
8.86457249798776e-34
-3.795166939095034e-33
1.6703007378809338e-32
-6.749527345350357e-32
1.7870131992295364e-31
5.261152103014092e-31
-5.311998003544447e-37
6.555887817845742e-37
-4.302053353934018e-37
-4.7005913278812184e-36
3.5927023174289463e-35
-1.747285349711691e-34
7.023793060878184e-34
-2.667544874054057e-33
1.1424146249128322e-32
-6.087546432858554e-32
3.422926388477395e-31
-1.4337911206326095e-30
-1.2245295457732044e-30
3.2479428311446666e-36
-7.442995343692881e-36
2.1573857543367325e-35
-4.913543260155828e-35
2.98626236756181e-35
5.4868955290603356e-34
-4.505253843782329e-33
2.4122224652266068e-32
-1.0174705235222022e-31
3.362027900291097e-31
-7.635886855419403e-31
9.806262152359422e-31
-1.165094063396292e-29
2.8443357687466544e-16
3.1214573737548584e-17
-7.602510911108016e-16
5.2707637285282875e-15
-2.900732998289788e-14
1.224967210734689e-13
-2.0795641372974085e-13
-1.9685501665056818e-13
1.0064349355947553e-12
-1.959601811788593e-12
-8.602081377709842e-12
1.393452614896607e-10
-2.682891488519325e-10
-1.6825164108561482e-10
1.0663701510012485e-9
-1.4690219930650536e-9
-3.348654075560099e-8
2.765047139601137e-7
4.848043839995965e-7
1.5440664959515863e-10
-1.8566514234704248e-8
5.707442484283914e-9
-3.4870964772035826e-8
-1.4895899893592466e-9
1.2296298012696622e-9
-3.0433819540205044e-10
5.233160646491853e-11
-4.864350700666739e-12
-2.3344686830836484e-11
-1.0243047260547452e-12
-3.525193025991416e-17
-4.7349308932078024e-17
1.9871834146288733e-16
-6.38966877969286e-16
2.377243049551883e-15
-1.9382874114308332e-14
8.309530736621817e-14
-1.1218522225742396e-15
1.4842654105128175e-13
-1.0693312327180428e-12
2.093377122840102e-12
1.347097491489278e-12
1.0789356693792291e-10
3.5883659550871406e-11
4.4978867682750866e-11
-1.3877078499683162e-9
5.066277747475194e-9
-1.1204450229263326e-8
-6.906022425540786e-9
2.1681510978396393e-9
-2.8722533769095122e-9
-1.495412067877332e-9
1.1167962203165885e-9
-1.300308347789915e-9
-1.0243626134645973e-11
6.472928234315803e-11
-2.1351826227017848e-11
3.767848321545298e-12
3.275133024375653e-12
4.1452717529219856e-13
1.797780918268539e-18
1.5279655662412076e-17
-4.9053838481934516e-17
1.0524508350952715e-16
-1.232177282734102e-16
3.270291680111755e-15
-2.7395827341650618e-14
1.1632353619432395e-14
-7.700031954116853e-14
3.267245152113735e-13
-4.11120873769946e-13
-1.7403749051226849e-12
-2.3349764716167515e-11
5.785794808624653e-12
-9.192091632515127e-11
5.672065275787288e-10
-4.568862165481932e-10
-7.335934295813451e-9
-1.955664872211805e-8
-3.2541934966775734e-9
1.479158688843106e-9
1.1330282823888264e-10
3.202592323452106e-10
2.3786100885709917e-10
-4.888617121882444e-11
-6.457809745692948e-13
3.4082109561556404e-12
-9.7689892600213e-13
2.4814516163749694e-16
-6.122916547465717e-14
2.3166383689663565e-18
-6.219519971226395e-18
2.0709578656859696e-17
-5.986550739887857e-17
1.3470510790280492e-16
-1.2413135875625452e-15
1.0731223713950545e-14
-9.664217291489435e-15
3.284530316511982e-14
-8.784558307286413e-14
1.7008698042012288e-13
-3.743839419335716e-13
4.808718763345036e-12
-1.2496223455250947e-11
6.526326654924072e-11
-2.2016424099222823e-10
-6.35562802259642e-11
4.115453760554297e-9
9.403761454101547e-9
1.8572757032078473e-9
-5.805198481966304e-10
8.715448850343619e-11
-1.4086765560759624e-10
-4.7532729348138046e-12
3.3489199982018757e-11
-8.276240137323501e-12
6.873398298890046e-13
1.6026456130200286e-13
-2.686019464261891e-13
4.0222915214320246e-15
3.787537492284732e-29
-4.427997545780829e-29
-1.4932352052245243e-28
1.5705940680860919e-27
-1.0143943975917834e-26
3.9077917036200386e-26
-1.1349344827747658e-25
1.7893153582648167e-25
5.537456880471196e-25
-6.740308586346452e-24
3.790672068555069e-23
-1.518252209783073e-22
4.146221659294913e-22
-2.7551261516016616e-22
-5.154860385166503e-21
3.7994502960058857e-20
-1.4311606815878274e-19
8.372640546100368e-20
3.35510457692505e-18
3.3542295187312034e-18
8.411117179461887e-20
-1.4338639030631824e-19
3.805774584124012e-20
-5.160305388594772e-21
-2.8058717027849476e-22
4.188339876166254e-22
-1.5361595052516508e-22
4.3185229918904445e-23
-8.95659667092965e-36
2.30682488000293e-35
-7.85260079467163e-35
2.390254139948591e-34
-5.775060761849324e-34
6.49448112255144e-34
3.9252403022469776e-33
-3.882463529919117e-32
2.28753832459472e-31
-1.1186687531678554e-30
4.9175692550954585e-30
-1.9800759111502943e-29
6.911656766914373e-29
-1.8866086416916467e-28
3.702610413767884e-28
4.775902347389001e-29
-4.812666860289966e-27
3.373540359729724e-26
-1.5663340290452055e-25
5.647402109085544e-25
-1.4770075703837836e-24
1.3444582109334876e-24
1.4248615316939168e-23
-1.201593130910664e-22
5.9327854532668905e-22
-2.0588589661506207e-21
3.948211300249519e-21
8.743548889177491e-21
-1.2373939750885267e-19
5.94197026422193e-19
-8.574826502918485e-19
-1.2323559797343506e-17
-1.231960712766488e-17
-8.581524393928267e-19
5.942916202398513e-19
-1.235843352737441e-19
8.6937030382763e-21
3.953859786520016e-21
-2.05984236035452e-21
5.939957154935591e-22
-8.374916853986583e-23
2.4864573535121667e-35
-8.170363966752218e-35
3.2834366765222566e-34
-1.1941594231120821e-33
3.8196835414830353e-33
-9.985863797629802e-33
1.5239996219328633e-32
4.140421064375972e-32
-5.456543302647693e-31
3.421986893968261e-30
-1.6980950273412407e-29
7.294556677348578e-29
-2.766682572251428e-28
9.244660458376991e-28
-2.576478811578177e-27
4.950349144420218e-27
1.804053649636979e-27
-8.0825485683702e-26
5.166639026506369e-25
-2.3014797117784953e-24
7.835802783480325e-24
-1.7875905724068584e-23
-1.5483370766146043e-24
2.98952038514847e-22
-2.019560422045285e-21
8.746137550834452e-21
-2.4714068905685625e-20
1.3687426531807015e-20
3.3858157942226566e-19
-2.247131491848484e-18
5.194644338915778e-18
4.1620303657892915e-17
4.1603109016719155e-17
5.196001795831744e-18
-2.24686763554692e-18
3.378050063968698e-19
1.389278369732056e-20
-2.4724583937800168e-20
8.745786769540599e-21
-2.0292400064588008e-21
2.964025216021285e-23
-4.272709162067403e-35
2.288244727917973e-34
-1.1126794312142942e-33
4.669481182543044e-33
-1.7451699126077838e-32
5.746118333129087e-32
-1.5689889845148768e-31
2.7519094472818504e-31
3.9242657540885803e-31
-7.203370910742045e-30
4.742650006603844e-29
-2.399032610697287e-28
1.0403766609353876e-27
-3.973473120873153e-27
1.3233494886900803e-26
-3.631967837836856e-26
6.536187090579616e-26
5.982491896381514e-26
-1.3105007260600096e-24
7.894588714299437e-24
-3.361736481695969e-23
1.0661883156715127e-22
-1.9656904636435623e-22
-3.7363714989062553e-22
5.757747947006674e-21
-3.2657744347603334e-20
1.2090645507757102e-19
-2.3342063830152793e-19
-6.103279062489425e-19
7.580942046898225e-18
-2.574213522265037e-17
-1.2219538575081798e-16
-1.2212343111551637e-16
-2.5741978044459565e-17
7.578083417720386e-18
-6.071858378601059e-19
-2.3410600979647067e-19
1.208903627878618e-19
-3.264000241163768e-20
5.8032610735193305e-21
6.9195418845096815e-22
-6.946367775576345e-35
-3.9624387009862394e-34
2.9562082088933487e-33
-1.511087061701626e-32
6.579640548966446e-32
-2.536055612447107e-31
8.616634517486502e-31
-2.45888137625667e-30
4.852878032272625e-30
2.2997649886526005e-30
-9.290841641205083e-29
6.537605107318498e-28
-3.394605041367933e-27
1.4913357193143905e-26
-5.722235579837445e-26
1.8985286165670687e-25
-5.109961189451011e-25
8.447948114481016e-25
1.4074931442729912e-24
-2.1209450366707202e-23
1.2058377030223936e-22
-4.874734584457297e-22
1.4072092243578519e-21
-1.722883332093825e-21
-1.1366190563410999e-20
1.0504850471515773e-19
-5.066530166397662e-19
1.5056351384257877e-18
-7.333700103541567e-19
-2.1357631917833953e-17
1.1151373963749068e-16
2.6153751689596423e-16
2.6124684396065646e-16
1.1148965997628884e-16
-2.1339624955425268e-17
-7.451311203696138e-19
1.5076229694911045e-18
-5.063581492002193e-19
1.0487487516239497e-19
-1.1409900584945393e-20
-3.833606431771e-21
1.1396714085451985e-33
-6.495755603056971e-34
-4.164907719095453e-33
3.654058334563476e-32
-2.0154596568028634e-31
9.186710169996741e-31
-3.665950248926236e-30
1.287447998588663e-29
-3.8342405147810787e-29
8.336808842604872e-29
-1.834803738023854e-29
-1.171460026303132e-27
8.972074036045966e-27
-4.802314754308099e-26
2.140449267516228e-25
-8.255557393399419e-25
2.7266906425752638e-24
-7.170957649430101e-24
1.0593891240030411e-23
2.9197922901626627e-23
-3.4317811243254e-22
1.83863747701164e-21
-6.981103033555072e-21
1.7598945196265657e-20
-4.126120456674257e-21
-2.665794614672565e-19
1.8451502682426823e-18
-7.461239219312147e-18
1.508732201993928e-17
3.8816967987259437e-17
-4.2641995747595803e-16
2.0667492111995467e-17
2.179725659719916e-17
-4.262310262820208e-16
3.8722238577689095e-17
1.5127579068772578e-17
-7.46561709853734e-18
1.843082406406987e-18
-2.6538796051542874e-19
-3.671591190305147e-21
1.1217931452459407e-20
-7.080771901546231e-33
1.0729903898610999e-32
-1.5530353041351882e-32
-2.9075618904593323e-32
4.254155774426975e-31
-2.6271995546277927e-30
1.2676609169030032e-29
-5.263628247489124e-29
1.9151752554206184e-28
-5.949273165648707e-28
1.4049418878281178e-27
-1.0598465914244187e-27
-1.4274702451845044e-26
1.2234743048968517e-25
-6.788258766423848e-25
3.076017335609895e-24
-1.1932141445258781e-23
3.920048905884198e-23
-1.0027274026469247e-22
1.2663855473294737e-22
5.689472174537431e-22
-5.5458100711433885e-21
2.7891499063699325e-20
-9.770994776883253e-20
1.9596558312045394e-19
3.374578562166066e-19
-5.658320469482053e-18
3.1417452821769433e-17
-1.0092874836010275e-16
5.62860711284399e-17
1.3993481663444494e-15
-4.692128643267641e-15
-4.6963220401280804e-15
1.398253427103914e-15
5.673512598096108e-17
-1.0104915279586946e-16
3.1419863068017866e-17
-5.648550129841885e-18
3.3387835800270265e-19
1.9693963415429891e-19
-7.614565663551405e-20
3.3203251666080664e-32
-6.694165281284868e-32
1.7528142920799938e-31
-3.556139423559857e-31
7.843216014722485e-32
4.484301812371738e-30
-3.3146438976613183e-29
1.7220321970960894e-28
-7.492986131509621e-28
2.8342178336022926e-27
-9.187306406060335e-27
2.334173391567621e-26
-2.7670793325831193e-26
-1.645810021043877e-25
1.6537025642670421e-24
-9.582194373237923e-24
4.42535705415725e-23
-1.7281317375560126e-22
5.641978500603385e-22
-1.3960499332123548e-21
1.3875316111424509e-21
1.0636627326780964e-20
-8.92065104945673e-20
4.1784338774758274e-19
-1.302447494834397e-18
1.5459352783351433e-18
1.2814516299945427e-17
-1.14157312601569e-16
5.113167147947729e-16
-1.0712125369444621e-15
-3.53646369076814e-15
3.690876506499269e-14
3.6923424488739895e-14
-3.530974243232587e-15
-1.0731826343695965e-15
5.115895618224544e-16
-1.1410682922688488e-16
1.2774119645479554e-17
1.5522873614572214e-18
-1.323923156674307e-18
3.8406540884222296e-19
-1.288319475789889e-31
3.1395737591014786e-31
-1.013047175508541e-30
2.987073643038745e-30
-7.150212964394262e-30
8.904456914769198e-30
3.794583341242145e-29
-3.9775503643994475e-28
2.2893190180757956e-27
-1.0547756011401403e-26
4.167824690933113e-26
-1.4120287051086377e-25
3.8360199599447786e-25
-5.937705345172708e-25
-1.7138627235014928e-24
2.2074659023667205e-23
-1.3493388408208869e-22
6.37508198131642e-22
-2.5090811329027748e-21
8.13756683386865e-21
-1.9324366284162017e-20
1.2841918339915161e-20
1.9198399048995836e-19
-1.4176781807099217e-18
6.06992262046711e-18
-1.5543259500036038e-17
-7.045298725089684e-18
3.459984492739829e-16
-2.184694374718189e-15
7.176068755411542e-15
3.4969308356587813e-15
-2.1043236658036697e-13
-2.1047933207088277e-13
3.472017379753629e-15
7.184138286087037e-15
-2.1848220955009774e-15
3.4557838857721583e-16
-6.89972210654832e-18
-1.5509870288250995e-17
6.164344691699281e-18
-1.570996114515616e-18
4.104084174348615e-31
-1.2099700666816492e-30
4.513034478330693e-30
-1.5754401507986666e-29
4.960997943019799e-29
-1.3304531785526363e-28
2.4875822812612726e-28
1.161419962309787e-28
-4.3811401747604586e-27
2.9501915886041884e-26
-1.462588229884263e-25
6.080035326284237e-25
-2.1591504654201378e-24
6.250140882008511e-24
-1.1651748013790136e-23
-1.4034612336961098e-23
2.8924139108659903e-22
-1.8947321305092037e-21
9.200330992483349e-21
-3.658893747655749e-20
1.1779246087514024e-19
-2.6716623711366343e-19
7.611526302636016e-20
3.3326453385888687e-18
-2.1874219107462437e-17
8.254284989277814e-17
-1.3355367142008408e-16
-7.593773414630419e-16
7.984190083828955e-15
-3.617785375415096e-14
3.1672642872262464e-14
1.014128206665452e-12
1.0142575422676368e-12
3.1776231472782827e-14
-3.620865100898504e-14
7.9806615954786e-15
-7.56993067028413e-16
-1.340286005665303e-16
8.213403247452883e-17
-2.1604456288017384e-17
4.251944547748602e-18
-9.487096331967211e-31
3.7705221972727195e-30
-1.639335763650916e-29
6.542668417543311e-29