# vtk DataFile Version 1.0
FinEtools Export
ASCII

DATASET UNSTRUCTURED_GRID
POINTS 3371 double
0.0 0.0 0.0
0.09999999999999998 0.0 0.0
0.19999999999999996 0.0 0.0
0.3 0.0 0.0
0.39999999999999997 0.0 0.0
0.5 0.0 0.0
0.6 0.0 0.0
0.7000000000000001 0.0 0.0
0.7999999999999999 0.0 0.0
0.8999999999999999 0.0 0.0
1.0 0.0 0.0
1.0999999999999999 0.0 0.0
1.2 0.0 0.0
0.0 0.09999999999999994 0.0
0.09999999999999998 0.09999999999999994 0.0
0.19999999999999996 0.09999999999999995 0.0
0.3 0.09999999999999994 0.0
0.39999999999999997 0.09999999999999994 0.0
0.5 0.09999999999999994 0.0
0.6 0.09999999999999994 0.0
0.7 0.09999999999999994 0.0
0.7999999999999999 0.09999999999999994 0.0
0.8999999999999999 0.09999999999999994 0.0
1.0 0.09999999999999994 0.0
1.1 0.09999999999999992 0.0
1.2 0.09999999999999994 0.0
0.0 0.2 0.0
0.09999999999999999 0.20000000000000004 0.0
0.19999999999999998 0.2 0.0
0.3 0.2 0.0
0.4 0.2 0.0
0.5 0.2 0.0
0.6 0.2 0.0
0.7000000000000001 0.2 0.0
0.8 0.2 0.0
0.8999999999999999 0.20000000000000004 0.0
1.0 0.2 0.0
1.0999999999999999 0.2 0.0
1.2 0.2 0.0
0.0 0.3000000000000001 0.0
0.09999999999999996 0.3000000000000001 0.0
0.19999999999999993 0.3000000000000001 0.0
0.3 0.3000000000000001 0.0
0.3999999999999999 0.3000000000000001 0.0
0.5000000000000001 0.3000000000000001 0.0
0.6 0.3000000000000001 0.0
0.7000000000000001 0.3000000000000001 0.0
0.7999999999999998 0.3000000000000001 0.0
0.9 0.3000000000000001 0.0
1.0000000000000002 0.3000000000000001 0.0
1.0999999999999999 0.3000000000000001 0.0
1.2 0.3000000000000001 0.0
0.0 0.4 0.0
0.09999999999999998 0.4000000000000001 0.0
0.19999999999999996 0.4 0.0
0.3 0.4 0.0
0.39999999999999997 0.4 0.0
0.5 0.4 0.0
0.6 0.4 0.0
0.7000000000000001 0.4 0.0
0.7999999999999999 0.4 0.0
0.8999999999999999 0.4000000000000001 0.0
1.0 0.4 0.0
1.0999999999999999 0.4 0.0
1.2 0.4 0.0
0.0 0.5 0.0
0.09999999999999996 0.5 0.0
0.19999999999999993 0.49999999999999994 0.0
0.3 0.5 0.0
0.39999999999999997 0.5 0.0
0.5 0.49999999999999994 0.0
0.6 0.5 0.0
0.7 0.49999999999999994 0.0
0.7999999999999999 0.5 0.0
0.9 0.5 0.0
1.0 0.49999999999999994 0.0
1.1 0.5 0.0
1.2 0.5 0.0
0.0 0.6000000000000001 0.0
0.09999999999999998 0.6000000000000001 0.0
0.19999999999999996 0.6000000000000001 0.0
0.29999999999999993 0.6 0.0
0.39999999999999997 0.6000000000000001 0.0
0.49999999999999994 0.6 0.0
0.5999999999999999 0.6000000000000001 0.0
0.7 0.6000000000000001 0.0
0.7999999999999999 0.6000000000000001 0.0
0.8999999999999999 0.6 0.0
0.9999999999999999 0.6 0.0
1.0999999999999999 0.6000000000000001 0.0
1.1999999999999997 0.6000000000000001 0.0
0.0 0.7 0.0
0.09999999999999998 0.7000000000000001 0.0
0.19999999999999996 0.7000000000000001 0.0
0.30000000000000004 0.7000000000000001 0.0
0.4 0.7 0.0
0.5 0.7 0.0
0.6000000000000001 0.7 0.0
0.7000000000000001 0.7 0.0
0.8 0.7 0.0
0.9 0.7000000000000001 0.0
1.0 0.7 0.0
1.1 0.7 0.0
1.2000000000000002 0.7 0.0
0.0 0.8 0.0
0.09999999999999996 0.8000000000000002 0.0
0.19999999999999993 0.8 0.0
0.3 0.8 0.0
0.39999999999999997 0.8 0.0
0.5000000000000001 0.8 0.0
0.6 0.8 0.0
0.7000000000000001 0.8 0.0
0.7999999999999999 0.8 0.0
0.8999999999999999 0.8000000000000002 0.0
1.0000000000000002 0.8 0.0
1.0999999999999999 0.8 0.0
1.2 0.8 0.0
0.0 0.9 0.0
0.09999999999999996 0.9000000000000001 0.0
0.19999999999999993 0.9 0.0
0.3 0.8999999999999999 0.0
0.4 0.9 0.0
0.5 0.9 0.0
0.6 0.9 0.0
0.7000000000000001 0.9 0.0
0.8 0.9 0.0
0.8999999999999999 0.8999999999999999 0.0
1.0 0.9 0.0
1.0999999999999999 0.9 0.0
1.2 0.9 0.0
0.0 1.0 0.0
0.09999999999999998 1.0 0.0
0.19999999999999996 1.0 0.0
0.3 1.0 0.0
0.39999999999999997 1.0 0.0
0.5 1.0 0.0
0.6 1.0 0.0
0.7000000000000001 1.0000000000000002 0.0
0.7999999999999999 1.0 0.0
0.9 1.0000000000000002 0.0
1.0 1.0000000000000002 0.0
1.0999999999999999 1.0000000000000002 0.0
1.2 1.0 0.0
0.0 1.1 0.0
0.09999999999999996 1.1 0.0
0.19999999999999993 1.1 0.0
0.3 1.1 0.0
0.39999999999999997 1.1 0.0
0.5 1.0999999999999999 0.0
0.6 1.1 0.0
0.7 1.1 0.0
0.7999999999999999 1.1 0.0
0.8999999999999999 1.0999999999999999 0.0
1.0 1.1 0.0
1.0999999999999999 1.1 0.0
1.2 1.1 0.0
0.0 1.2000000000000002 0.0
0.09999999999999998 1.2000000000000002 0.0
0.19999999999999996 1.2000000000000002 0.0
0.3 1.2 0.0
0.39999999999999997 1.2000000000000002 0.0
0.5 1.2 0.0
0.6 1.2000000000000002 0.0
0.7000000000000001 1.2000000000000002 0.0
0.7999999999999999 1.2000000000000002 0.0
0.9 1.2 0.0
1.0 1.2 0.0
1.0999999999999999 1.2000000000000002 0.0
1.2 1.2000000000000002 0.0
0.0 1.3 0.0
0.09999999999999998 1.3 0.0
0.19999999999999996 1.3 0.0
0.3 1.3 0.0
0.39999999999999997 1.3 0.0
0.5 1.3 0.0
0.6 1.3 0.0
0.7000000000000001 1.3 0.0
0.7999999999999999 1.3 0.0
0.8999999999999999 1.3 0.0
1.0 1.3 0.0
1.0999999999999999 1.3 0.0
1.2 1.3 0.0
0.0 1.4 0.0
0.09999999999999998 1.4000000000000001 0.0
0.19999999999999996 1.4000000000000001 0.0
0.3 1.4000000000000001 0.0
0.39999999999999997 1.4 0.0
0.5 1.4 0.0
0.6 1.4 0.0
0.7 1.4 0.0
0.7999999999999999 1.4 0.0
0.8999999999999999 1.4000000000000001 0.0
1.0 1.4 0.0
1.0999999999999999 1.4 0.0
1.2 1.4 0.0
0.0 1.5 0.0
0.09999999999999998 1.5 0.0
0.19999999999999996 1.4999999999999998 0.0
0.3 1.5 0.0
0.39999999999999997 1.5 0.0
0.5 1.4999999999999998 0.0
0.6 1.5 0.0
0.7 1.5 0.0
0.7999999999999999 1.5 0.0
0.9 1.5 0.0
1.0 1.5 0.0
1.0999999999999999 1.4999999999999998 0.0
1.2 1.5 0.0
0.0 1.6 0.0
0.09999999999999998 1.6000000000000003 0.0
0.19999999999999996 1.6 0.0
0.3 1.6 0.0
0.39999999999999997 1.6 0.0
0.5 1.6 0.0
0.6 1.6 0.0
0.7000000000000001 1.6 0.0
0.7999999999999999 1.6 0.0
0.8999999999999999 1.6000000000000003 0.0
1.0 1.6 0.0
1.0999999999999999 1.6 0.0
1.2 1.6 0.0
0.0 1.7000000000000002 0.0
0.09999999999999996 1.7000000000000002 0.0
0.19999999999999993 1.7000000000000002 0.0
0.3 1.7000000000000002 0.0
0.39999999999999997 1.7000000000000002 0.0
0.5 1.7000000000000002 0.0
0.6 1.7000000000000002 0.0
0.7000000000000001 1.7000000000000002 0.0
0.7999999999999999 1.7000000000000002 0.0
0.9 1.7000000000000002 0.0
1.0 1.7000000000000002 0.0
1.0999999999999999 1.7000000000000002 0.0
1.2 1.7000000000000002 0.0
0.0 1.8 0.0
0.09999999999999998 1.8000000000000003 0.0
0.19999999999999996 1.8 0.0
0.3 1.7999999999999998 0.0
0.39999999999999997 1.8 0.0
0.5 1.8 0.0
0.6 1.8 0.0
0.7000000000000001 1.8 0.0
0.7999999999999999 1.8 0.0
0.8999999999999999 1.7999999999999998 0.0
1.0 1.8 0.0
1.0999999999999999 1.8 0.0
1.2 1.8 0.0
0.0 1.9 0.0
0.09999999999999998 1.9000000000000001 0.0
0.19999999999999996 1.9 0.0
0.3 1.9 0.0
0.39999999999999997 1.9000000000000001 0.0
0.5 1.9 0.0
0.6 1.9 0.0
0.7 1.9 0.0
0.7999999999999999 1.9 0.0
0.8999999999999999 1.9 0.0
1.0 1.9 0.0
1.0999999999999999 1.9000000000000001 0.0
1.2 1.9 0.0
0.0 2.0 0.0
0.09999999999999998 2.0 0.0
0.19999999999999996 2.0 0.0
0.3 2.0 0.0
0.3999999999999999 2.0 0.0
0.5 2.0 0.0
0.6 2.0 0.0
0.7000000000000001 2.0000000000000004 0.0
0.7999999999999998 2.0 0.0
0.9 2.0000000000000004 0.0
1.0 2.0000000000000004 0.0
1.0999999999999999 2.0000000000000004 0.0
1.2 2.0 0.0
0.0 2.1 0.0
0.09999999999999996 2.1 0.0
0.19999999999999993 2.1 0.0
0.3 2.1 0.0
0.39999999999999997 2.1 0.0
0.5 2.1 0.0
0.6 2.1 0.0
0.7000000000000001 2.1 0.0
0.7999999999999999 2.1 0.0
0.9 2.1 0.0
1.0 2.1 0.0
1.1 2.1 0.0
1.2 2.1 0.0
0.0 2.2 0.0
0.09999999999999998 2.2 0.0
0.19999999999999996 2.2 0.0
0.3 2.2 0.0
0.39999999999999997 2.2 0.0
0.5 2.1999999999999997 0.0
0.6 2.2 0.0
0.7000000000000001 2.2 0.0
0.7999999999999999 2.2 0.0
0.8999999999999999 2.1999999999999997 0.0
1.0 2.2 0.0
1.0999999999999999 2.2 0.0
1.2 2.2 0.0
0.0 2.3 0.0
0.09999999999999996 2.3 0.0
0.19999999999999993 2.3 0.0
0.3 2.3 0.0
0.3999999999999999 2.3 0.0
0.5 2.3 0.0
0.6 2.3 0.0
0.7000000000000001 2.3000000000000003 0.0
0.7999999999999998 2.3 0.0
0.9 2.3000000000000003 0.0
1.0 2.3 0.0
1.0999999999999999 2.3 0.0
1.2 2.3 0.0
0.0 2.4000000000000004 0.0
0.09999999999999998 2.4000000000000004 0.0
0.19999999999999996 2.4000000000000004 0.0
0.3 2.4 0.0
0.39999999999999997 2.4000000000000004 0.0
0.5 2.4 0.0
0.6 2.4000000000000004 0.0
0.7000000000000001 2.4000000000000004 0.0
0.7999999999999999 2.4000000000000004 0.0
0.8999999999999999 2.4 0.0
1.0 2.4 0.0
1.0999999999999999 2.4000000000000004 0.0
1.2 2.4000000000000004 0.0
0.0 2.5 0.0
0.09999999999999996 2.5000000000000004 0.0
0.19999999999999993 2.5 0.0
0.3 2.5 0.0
0.39999999999999997 2.5 0.0
0.5 2.5 0.0
0.6 2.5 0.0
0.7 2.5 0.0
0.7999999999999999 2.5 0.0
0.8999999999999999 2.5 0.0
1.0 2.5 0.0
1.0999999999999999 2.5 0.0
1.2 2.5 0.0
0.0 2.6 0.0
0.09999999999999998 2.6 0.0
0.19999999999999996 2.6 0.0
0.3 2.6 0.0
0.39999999999999997 2.6 0.0
0.5 2.6 0.0
0.6 2.6 0.0
0.7000000000000001 2.6 0.0
0.7999999999999999 2.6 0.0
0.8999999999999999 2.6 0.0
1.0 2.6 0.0
1.0999999999999999 2.6 0.0
1.2 2.6 0.0
1.2800000000000002 2.6 0.0
1.3866666666666667 2.6 0.0
1.4933333333333334 2.6 0.0
1.6 2.6 0.0
0.0 2.6950000000000003 0.0
0.10666666666666665 2.695 0.0
0.2133333333333333 2.695 0.0
0.32000000000000006 2.6950000000000003 0.0
0.4266666666666667 2.695 0.0
0.5333333333333333 2.695 0.0
0.6400000000000001 2.6950000000000003 0.0
0.7466666666666667 2.6950000000000003 0.0
0.8533333333333334 2.695 0.0
0.96 2.695 0.0
1.0666666666666667 2.695 0.0
1.1733333333333331 2.695 0.0
1.2800000000000002 2.6950000000000003 0.0
1.3866666666666667 2.6950000000000003 0.0
1.4933333333333334 2.6950000000000003 0.0
1.6 2.6950000000000003 0.0
0.0 2.79 0.0
0.10666666666666665 2.79 0.0
0.2133333333333333 2.79 0.0
0.32 2.79 0.0
0.4266666666666667 2.79 0.0
0.5333333333333333 2.7900000000000005 0.0
0.64 2.79 0.0
0.7466666666666668 2.79 0.0
0.8533333333333334 2.79 0.0
0.9599999999999999 2.79 0.0
1.0666666666666667 2.79 0.0
1.1733333333333333 2.79 0.0
1.28 2.79 0.0
1.3866666666666667 2.79 0.0
1.4933333333333336 2.79 0.0
1.6 2.79 0.0
0.0 2.8850000000000002 0.0
0.10666666666666665 2.8850000000000002 0.0
0.2133333333333333 2.885 0.0
0.32 2.8850000000000002 0.0
0.4266666666666667 2.8850000000000002 0.0
0.5333333333333333 2.8850000000000002 0.0
0.64 2.8850000000000002 0.0
0.7466666666666668 2.8850000000000002 0.0
[...]
POINT_DATA 3371
SCALARS realP double
LOOKUP_TABLE default
8.109413528667914e-9
1.798248966290997e-8
9.544998622093491e-9
-1.3564214064532284e-8
-3.640392563092425e-8
-4.753631618517103e-8
-4.598482930671489e-8
-3.6935101957241485e-8
-2.5697061088509766e-8
-1.6082706925264958e-8
-1.0550834442409553e-8
-9.532518134382854e-9
-1.1174703967271945e-8
9.482952620148668e-9
-1.924273110419955e-8
-4.169013685292987e-8
-4.575953482197878e-8
-3.191315659413723e-8
-6.713327643234038e-9
2.1170310805652727e-8
4.240890757130378e-8
5.141397966207431e-8
4.886300309095931e-8
3.820307034260878e-8
2.1792542836388845e-8
9.229374136549976e-10
-2.082790020867809e-8
-3.9959636974314165e-8
-2.5814123549290184e-8
1.2132472004226659e-8
4.888799355850651e-8
6.717129132853923e-8
6.834814209531136e-8
6.2621088652367e-8
5.526592674914018e-8
4.628064844286024e-8
3.6377714623763954e-8
2.692696983496692e-8
1.7268822893318093e-8
-2.036553387625157e-8
2.186220381990294e-8
5.1277203205627245e-8
6.122158666444552e-8
6.291296559781978e-8
6.09988120663238e-8
5.1071615545721095e-8
3.50328242258622e-8
2.214482115767315e-8
1.6589829891795687e-8
1.580632869149579e-8
1.8013628587124685e-8
2.287736709185168e-8
2.3071153482382763e-8
6.21825296693459e-8
7.323270389953308e-8
5.7753898365548685e-8
2.888184909785941e-8
2.6513371691210268e-9
-1.7520274747971328e-8
-3.912148560021936e-8
-6.086383779777658e-8
-7.008214280036179e-8
-5.979769991117278e-8
-3.367131467515953e-8
2.7173597901378822e-9
4.821313663863047e-8
5.1664758118100416e-8
4.823715627309014e-8
2.7508583783796354e-8
-2.440972151588892e-8
-9.672947557167839e-8
-1.5662812783990734e-7
-1.8493795207502896e-7
-1.9001750512016298e-7
-1.8135681952069596e-7
-1.5539092827223765e-7
-1.1078695067974528e-7
-5.322259245766536e-8
5.4653891363357205e-8
3.351818432228249e-8
-2.6164081418704954e-8
-1.1103689388420513e-7
-1.9320466084241876e-7
-2.583478139098423e-7
-2.9897256194687606e-7
-3.0075136863400546e-7
-2.6403403668541524e-7
-2.1601444336791129e-7
-1.7817049609072222e-7
-1.4652420183713172e-7
-1.1114764917086766e-7
6.815919428099296e-9
-1.455004743582693e-7
-2.942240807812482e-7
-4.0220653368723184e-7
-4.4744696451045646e-7
-4.3211268901958884e-7
-3.8584916790420976e-7
-3.373935405139448e-7
-2.862418268095368e-7
-2.2882750034799364e-7
-1.834637238630888e-7
-1.6048250977301348e-7
-1.4669060835655392e-7
-2.0323360506540998e-7
-4.969774931574353e-7
-6.678857016324311e-7
-6.964209138998746e-7
-6.264647182907314e-7
-5.142245750737742e-7
-3.978196695323986e-7
-3.082390116814566e-7
-2.597241448616231e-7
-2.2903562750844787e-7
-1.9382277781603965e-7
-1.67779673123913e-7
-1.6389990687418134e-7
-5.046063999663367e-7
-7.199151896407673e-7
-8.055874595414097e-7
-7.705954857102704e-7
-6.448701933264707e-7
-4.86065493387389e-7
-3.504950558104769e-7
-2.595944677019636e-7
-2.1716762819901275e-7
-2.1315994388079525e-7
-2.0987989001139637e-7
-1.8815969361237955e-7
-1.7162196487466687e-7
-6.970420711552864e-7
-6.816954510784894e-7
-6.091408907524664e-7
-5.295002505093381e-7
-4.578972665156089e-7
-3.833037874925823e-7
-3.0938432812334537e-7
-2.563292999131548e-7
-2.3009457554205632e-7
-2.3155709201509503e-7
-2.5029556511837187e-7
-2.453307888194944e-7
-2.0100631878614844e-7
-6.799306969719171e-7
-4.1757774838297403e-7
-1.9741998408205616e-7
-8.8776276663209e-8
-1.0632292520896963e-7
-1.9943213029281514e-7
-2.809912660138125e-7
-3.0915140321230907e-7
-3.018542256363885e-7
-2.873743038323334e-7
-2.893251413445919e-7
-2.953528476092093e-7
-2.5936791379825833e-7
-4.304935818993576e-7
3.491479130500386e-9
2.64168901370094e-7
3.118798727638267e-7
1.970019625452162e-7
-6.626994907402536e-9
-2.246626824187747e-7
-3.7061835715897685e-7
-4.106373407216584e-7
-3.835847527983358e-7
-3.4028431072918387e-7
-3.2066127776793017e-7
-3.1634909052244095e-7
-3.677234313746117e-8
3.637394209418796e-7
5.450097465743666e-7
5.198740335515068e-7
3.385804683212143e-7
8.536779635093785e-8
-1.6516075962591143e-7
-3.6139746810674793e-7
-4.551966660923193e-7
-4.4255577048970095e-7
-3.7316164826637723e-7
-3.229576198482993e-7
-3.414957314428365e-7
3.296399230607212e-7
5.226374310612804e-7
5.263160523801676e-7
4.1215262593985107e-7
2.2495671742504013e-7
7.943621001779877e-9
-1.7556805352232849e-7
-3.069226971560208e-7
-3.9260573300606597e-7
-4.085838796613137e-7
-3.681539190478859e-7
-3.259386436712056e-7
-3.3143954451280327e-7
5.169145629554309e-7
3.539331387549696e-7
1.0788232467164773e-7
-1.0718880689938427e-7
-2.0515351309736847e-7
-2.1099357223419587e-7
-2.1314030820843016e-7
-2.387439793969248e-7
-2.7570547963785767e-7
-3.129953890630055e-7
-3.3480293738083366e-7
-3.314381409634548e-7
-3.169779738334809e-7
3.468289491009197e-7
-2.556988133593354e-7
-7.007764501346789e-7
-8.455597004375419e-7
-7.219334902020198e-7
-4.576775893685912e-7
-2.161236806552191e-7
-1.0255270553963182e-7
-1.0208706138359917e-7
-1.7546362891826364e-7
-2.587135698982909e-7
-2.9291695410614876e-7
-2.960475557428044e-7
-2.3546152218757199e-7
-1.0815918011031334e-6
-1.5073486612550488e-6
-1.43775771027424e-6
-1.040377649027973e-6
-5.455443071583706e-7
-1.2290535267899186e-7
1.1190967539989131e-7
1.1127879350418603e-7
-3.874656606881989e-8
-1.983450937526817e-7
-2.719615808721992e-7
-2.6850241406903294e-7
-1.027549213886146e-6
-1.6853884259491462e-6
-1.791662796262372e-6
-1.4829186177521334e-6
-9.349083023679511e-7
-3.5404584297729955e-7
7.713637824003918e-8
2.807942532275162e-7
2.3042489953723012e-7
2.163756885520528e-8
-2.000918040926128e-7
-3.285864039554105e-7
-2.9543218470799887e-7
-1.6473183046033985e-6
-1.6702588074636147e-6
-1.3184216202467267e-6
-8.235723955647732e-7
-3.4987437119948126e-7
1.4207494542743145e-8
2.2814420206932078e-7
2.52802767343339e-7
1.4833254867083896e-7
-3.931800031864956e-8
-2.4976882485974364e-7
-4.053833758188072e-7
-4.029664970340079e-7
-1.745425997212479e-6
-1.0116635769292587e-6
-2.348235946482721e-7
3.086725064836623e-7
4.928005591502642e-7
3.762740399611653e-7
1.6574186112877334e-7
-9.798250179009825e-9
-9.182947557159952e-8
-1.578656700441926e-7
-2.7720788500038004e-7
-4.1824508661863193e-7
-5.247567875646086e-7
-1.2516440355586008e-6
7.139197202484153e-8
1.0904888721534026e-6
1.4277246624701348e-6
1.1118804087036728e-6
4.6204124882674953e-7
-1.4773645214580846e-7
-4.315130921871528e-7
-4.1660363980562127e-7
-2.555305558049585e-7
-1.8215846920727218e-7
-2.898605379749706e-7
-5.442745498095743e-7
-2.689356372623449e-7
1.3090629576232857e-6
2.098132349297985e-6
1.9628524926393493e-6
1.1335205731932358e-6
1.2312497342987567e-7
-6.484376997147113e-7
-8.88643030595688e-7
-6.6709056311887e-7
-2.1938677140603617e-7
9.237240979421944e-8
3.1584017235962186e-8
-3.538093836779242e-7
9.528914466436684e-7
2.1948741983716126e-6
2.363269058388509e-6
1.645017381457459e-6
4.5244584332373087e-7
-6.362224421417622e-7
-1.2384166784277555e-6
-1.2069076715287237e-6
-6.764785100040564e-7
-3.199236236841428e-8
4.2621662778801615e-7
4.620250187910698e-7
7.192868070504877e-8
1.983363583427591e-6
2.363560727374103e-6
1.732889630639441e-6
4.6577832163835524e-7
-7.68608323055139e-7
-1.4936721835322797e-6
-1.569160414750848e-6
-1.1512905173993903e-6
-4.543348993812886e-7
2.0616567273970614e-7
6.299012088805848e-7
7.324095985869261e-7
5.605155399860274e-7
2.4862274057014934e-6
1.7556325245457687e-6
2.513792526071521e-7
-1.2510305793519609e-6
-1.9867294009898557e-6
-1.8947693397423281e-6
-1.2663485416696743e-6
-6.57951250801577e-7
-3.980858702788212e-8
3.8916932026939725e-7
5.842502531440868e-7
3.975846710541916e-7
5.785963825811849e-7
2.3019149818547502e-6
4.334531203193954e-7
-1.635921386259665e-6
-2.8487673861447285e-6
-2.6777549353292105e-6
-1.4884130972162545e-6
-1.1635250471249694e-7
4.918988683163914e-7
-3.430689727468341e-7
9.236233639778561e-7
7.431663865400534e-8
-5.534096242304796e-7
-9.321542822468163e-7
-1.8265409987067334e-6
-2.4914530809769655e-6
-1.8475418046506417e-6
1.3711711052463756e-6
1.4915763664696047e-6
-1.2993153482541024e-6
-3.3834467168610235e-6
-3.6295956792420452e-6
-2.0492976559539396e-6
3.112352325317948e-7
1.8763947500118044e-6
2.1222429566038123e-6
1.1138332088661522e-6
-2.3684277516965641e-7
-1.4361163298579753e-6
-1.932273935799853e-6
-1.848408253334815e-6
-1.2513257538937541e-6
6.4554517365524e-8
2.2478429895317773e-6
3.0982845486255384e-7
-2.6465215768072405e-6
-4.236017149891347e-6
-3.50284868459105e-6
-9.859214706308616e-7
1.815065066334375e-6
3.18729444689566e-6
2.644849773144105e-6
7.679662256931243e-7
-1.2483022252530438e-6
-2.369331599223523e-6
-2.2703436551677936e-6
-1.2333948302456357e-6
5.8322345832437185e-8
1.2402036590880144e-6
4.6742166502776245e-7
-8.880013317303349e-7
-3.4286875273304505e-6
-4.15991670874371e-6
-2.5659526645466974e-6
3.5483167615650236e-7
2.857086316419743e-6
3.518512811427331e-6
2.147751042599097e-6
-3.1249274539180453e-7
-2.355994868099738e-6
-2.8955720093233365e-6
-1.92542412323059e-6
-2.093497736357666e-7
1.163745534612918e-6
1.4765566772673592e-6
1.8694359876963952e-6
-1.8223392935668582e-6
-3.4572701109818888e-6
-3.1840842951199297e-6
-1.156003984753892e-6
1.465449232935472e-6
3.0870372707700497e-6
2.753742745483087e-6
6.83054621099365e-7
-1.8296884898318762e-6
-3.293899203680479e-6
-2.8884581459089e-6
-1.0354542366708851e-6
9.864355250241716e-7
1.9279873371345323e-6
1.3268774429748236e-6
-6.202792819659315e-7
-2.2844795633897258e-6
-2.7189615749451154e-6
-1.6613809045123479e-6
3.0271545065156994e-7
2.061078253762069e-6
2.433542476149192e-6
1.1031570107731787e-6
-1.2407328559858863e-6
-3.2355825508092417e-6
-3.6722206287450744e-6
-2.2853834239579365e-6
1.0690088493851781e-7
2.0407298253289498e-6
2.3438488289988886e-6
6.781277708669141e-7
-2.412293222501641e-6
-2.2028772114113443e-6
-1.4952370114488146e-6
-5.608799065769401e-10
1.4752898524330218e-6
2.0012330067955834e-6
1.1105675178610783e-6
-8.246752983343515e-7
-2.878468854505913e-6
-3.943280743810945e-6
-3.282233781950915e-6
-1.2231308867788167e-6
1.196542334563011e-6
2.6304696292288114e-6
2.2306949076233145e-6
3.948898035523165e-7
-2.6842519494699986e-6
-1.6990973745246155e-6
-1.293973637099171e-7
1.4443092550991851e-6
2.0987178637886034e-6
1.3507942425781196e-6
-4.248373728011447e-7
-2.4228875078178673e-6
-3.7069708096703246e-6
-3.604815585906699e-6
-2.080139993598943e-6
8.259655923367074e-8
1.8836375479469748e-6
2.4108009553037236e-6
1.4611989733849105e-6
-3.304737908741371e-7
-3.226811296719033e-8
-9.712696764371338e-7
1.0850059442716167e-6
2.3761952732067734e-6
2.075533551879797e-6
3.6061030058679465e-7
-1.7901477575234434e-6
-3.28172510748664e-6
-3.4005451891908766e-6
-2.1883899221492673e-6
-3.3150516237639117e-7
1.2467672357762156e-6
1.8332513002552913e-6
1.2691298886966592e-6
-3.5873437740025306e-8
-1.1675009168817062e-6
-2.78660636024191e-6
-2.0834367808220743e-7
1.923756436603967e-6
2.6808168367925703e-6
1.4871845214001119e-6
-7.96888512496505e-7
-2.7781102546802037e-6
-3.2505125414971958e-6
-2.1138632197833343e-6
-1.2971044362380047e-7
1.4866580171412454e-6
1.92045140177703e-6
1.018387481495954e-6
-5.507506759060697e-7
-1.9183977607615314e-6
-2.402814622144298e-6
-1.5002426665091524e-6
4.791147203454852e-7
2.321932065477876e-6
2.3657471426368804e-6
5.053707790727322e-7
-1.9327158410025834e-6
-3.283615578018638e-6
-2.563323853476474e-6
-3.5702373507754634e-7
1.9615667587213336e-6
2.8286583495566884e-6
1.8485279170910102e-6
-3.759369751806727e-7
-2.5323211951803183e-6
-3.4797070250656835e-6
-3.118145023043543e-6
-6.453292569046006e-7
1.0581984134384788e-6
2.353896208632364e-6
1.6154823200947938e-6
-6.790639095186137e-7
-2.920724775292079e-6
-3.3629964666940058e-6
-1.5819366109174733e-6
1.289158266019681e-6
3.4188313431501862e-6
3.286714522068084e-6
1.0422408383372475e-6
-1.9845924250711656e-6
-4.057292299902191e-6
-4.0954218103714865e-6
-2.4082995977018096e-6
-2.5962719234458086e-6
1.5255614320941692e-6
2.1616603927287472e-6
7.052894409648504e-7
-1.8237197331191175e-6
-3.6144766644370164e-6
-3.1730182184173456e-6
-6.56246299776598e-7
2.3700358786679694e-6
3.834464864582297e-6
2.7360593554731314e-6
-2.8597398624934995e-7
-3.3667084832604616e-6
-4.68091516390369e-6
-3.532390244628225e-6
-8.732919591212478e-7
2.969849876657551e-6
1.8995892957540118e-6
1.8775505621177364e-6
-1.3958165228214185e-7
-2.6819067524568693e-6
-3.9046665153018265e-6
-2.749874200321691e-6
5.719117805763618e-8
2.689268534931151e-6
3.2356518894786126e-6
1.3798722880748332e-6
-1.7969076007747748e-6
-4.204932773176858e-6
-4.333099637108251e-6
-2.131689507221558e-6
1.2880321125717263e-6
4.17041107850607e-6
2.19601278096351e-6
1.5685644660540144e-6
-7.771237479622179e-7
-3.10838508243628e-6
-3.743183923651355e-6
-2.0772842562465426e-6
5.814422101914344e-7
2.4042127053753347e-6
1.974265343161415e-6
-3.6177479221431067e-7
-3.0735792624896922e-6
-4.281487541984471e-6
-3.155451468060099e-6
-3.591965176515177e-7
2.528216842309072e-6
3.6163040110310343e-6
2.407876549139352e-6
1.2687025525235275e-6
-1.221999127675833e-6
-3.1633788554963915e-6
-3.1480422440315745e-6
-1.1678174118444908e-6
1.0861920118905459e-6
1.8895499665402006e-6
5.30352369689937e-7
-1.965692915661211e-6
-3.8051286561376305e-6
-3.590095496709708e-6
-1.4324926601361662e-6
1.2331299836110884e-6
2.7763061433027736e-6
2.533764881263656e-6
2.4876532801670915e-6
9.348364024899262e-7
-1.5738703333285862e-6
-3.0332422768353812e-6
-2.31126170571799e-6
-9.655909738833127e-8
1.7047191301687846e-6
1.4910655346796875e-6
-6.899233341517114e-7
-3.11518662573868e-6
-3.92694067819139e-6
-2.363395514187106e-6
4.931214335909104e-7
2.504503113143192e-6
2.2294813579402515e-6
1.8055248475123397e-8
2.414819042655053e-6
4.57367825169462e-7
-2.0153005540786115e-6
-2.9316233381122384e-6
-1.465734897986803e-6
1.0222708765292166e-6
2.4074701865337433e-6
1.3581189359029138e-6
-1.4278677822755287e-6
-3.710067452438884e-6
-3.6017374365363447e-6
-9.994629148226302e-7
2.261567494957418e-6
3.526618734091928e-6
1.4651526532626923e-6
-3.2457356129852735e-6
2.228467449869377e-6
-1.9746268376640035e-7
-2.657232977089397e-6
-3.036115295953099e-6
-8.811206908329393e-7
1.9687787384897463e-6
3.1123891115722318e-6
1.4521050851986802e-6
-1.7587689021551754e-6
-3.922688864632165e-6
-3.1700303862410063e-6
1.142012862544198e-7
3.540555132374543e-6
4.3096397527676545e-6
1.265956631134548e-6
-4.5233967025024285e-6
1.9878591738947045e-6
-9.715191978172953e-7
-3.460717766158336e-6
-3.3602313271227963e-6
-6.045135749586829e-7
2.5881294914304615e-6
3.592352673916486e-6
1.553178227152558e-6
-1.915100578649349e-6
-4.0067991322988825e-6
-2.9154246811359205e-6
6.939922135759128e-7
4.091433813953752e-6
4.538720796640362e-6
1.9346774257628726e-6
-3.192933853331327e-6
1.7494957517418847e-6
-1.7232229502089902e-6
-4.249733915774088e-6
-3.746059251747626e-6
-5.384883414481852e-7
2.881730589774275e-6
3.795416446491724e-6
1.4987067302704422e-6
-2.1505495449894494e-6
-4.1805052006249e-6
-2.9142598815906016e-6
7.14160521626579e-7
3.831786657943784e-6
4.0157593405002755e-6
1.2987449687320427e-6
2.335333822377827e-6
1.5185672719189078e-6
-2.2641995142608442e-6
-4.755087797159848e-6
-3.95175054614908e-6
-4.883488824781335e-7
2.9427700974255056e-6
3.682626201088111e-6
1.1952811957596394e-6
-2.4721100899570787e-6
-4.3932115973895e-6
-3.0514270442290076e-6
4.1494114564182747e-7
3.1050049015021836e-6
2.7605359766985554e-6
-1.1731077717819757e-7
-5.332383728047581e-6
1.2534157182186198e-6
-2.548467179236794e-6
-4.828257242859471e-6
-3.780237312530582e-6
-2.567295050652078e-7
2.948711970418432e-6
3.364847344997972e-6
6.885098988403443e-7
-2.848648186448588e-6
-4.515051736699418e-6
-3.035013266656725e-6
2.591623024485527e-7
2.49408214422644e-6
1.6822378186434477e-6
-2.1165826065391026e-6
-6.349842892417155e-6
9.103367320821218e-7
-2.6173491879734972e-6
-4.53023697100249e-6
-3.2731240081220243e-6
1.549643099608219e-7
2.980969675692166e-6
2.987923764445266e-6
1.419750844247016e-7
-3.179057612439289e-6
-4.466274276151292e-6
-2.70562936185764e-6
5.341356051345512e-7
2.4240671831969875e-6
1.2260653242990556e-6
-2.047922437113725e-6
-5.872206293204129e-6
4.716778290697e-7
-2.583135719577991e-6
-4.022876808274508e-6
-2.6033258246700918e-6
5.962865074378641e-7
2.9692837319897847e-6
2.5982119985698733e-6
-3.551230005012493e-7
-3.408894797231416e-6
-4.261890494842564e-6
-2.118753066485037e-6
1.238273541696567e-6
2.9288498812450558e-6
1.4989485954047843e-6
-1.79282968728956e-6
-9.87747750048878e-7
-2.953227977069938e-9
-2.557537432801299e-6
-3.5363674065236572e-6
-2.0168205750415865e-6
9.383242029505873e-7
2.879358263919386e-6
2.2258785567185697e-6
-7.542025605324969e-7
-3.5384358298501197e-6
-3.989161269116148e-6
-1.5057095524020393e-6
2.0442999558337896e-6
3.697332219654059e-6
2.0071463499704767e-6
-1.5621044759216532e-6
-4.785778275255922e-6
-3.8112269694507574e-7
-2.524624956257957e-6
-3.184841413893206e-6
-1.6826015337683255e-6
1.0263734990688152e-6
2.6550632650916827e-6
1.870035232865712e-6
-9.926920560094652e-7
-3.5350846622723455e-6
-3.7577142235012204e-6
-1.1399752525541136e-6
2.5143821910545306e-6
4.258998234294434e-6
2.54224081852086e-6
-1.8769802164551415e-6
-6.058813800619659e-6
-5.294348325675629e-7
-2.399993777746414e-6
-2.916742859401468e-6
-1.553125895077852e-6
7.793724654276216e-7
2.195162080506709e-6
1.529551950965068e-6
-9.984566853237976e-7
-3.3251389773997047e-6
-3.5861767801486485e-6
-1.2100368275544652e-6
2.3101590027910255e-6
4.2603817029075e-6
2.9744839920836716e-6
-1.2703224525966727e-6
-5.9716657943279035e-6
-4.1200773154952996e-7
-2.020546750836722e-6
-2.61568847636972e-6
-1.6295274096869679e-6
2.482747377317982e-7
1.5509407062681544e-6
1.1927613729221723e-6
-7.661437098811712e-7
-2.822802280179015e-6
-3.3676167484602624e-6
-1.6810030871743481e-6
1.3227397098211737e-6
3.492966372179421e-6
3.11804538509104e-6
4.4723252126551757e-7
-4.227285908616974e-6
-1.2371626007917409e-7
-1.3371491677424392e-6
-2.116949349619122e-6
-1.7739451481776052e-6
-5.161264997748374e-7
7.091475006116317e-7
8.695134335896438e-7
-2.94970925226173e-7
-1.988679619247551e-6
-2.980974693041252e-6
-2.37158192212736e-6
-3.2922242974959187e-7
1.8514970604104615e-6
2.7457209702502867e-6
1.4671748355975978e-6
2.4533054936950606e-6
1.900880626896169e-7
-4.688173505037094e-7
-1.3845192377675838e-6
-1.7978530915625611e-6
-1.3275345768737423e-6
-2.727104474894017e-7
5.292260466489501e-7
3.5446296826034604e-7
-8.157718498725075e-7
-2.2443990728530664e-6
-2.9011919616190238e-6
-2.2182660461379074e-6
-4.5517431282909596e-7
1.344283373063858e-6
2.809638990551191e-6
-1.8600723234125898e-6
-2.503710037958487e-6
-3.572581684008401e-6
-4.28188056628375e-6
-4.576672573776372e-6
-4.505386593204062e-6
-4.154577157797135e-6
-3.5986140135188658e-6
-2.8911980677628085e-6
-2.077395889596025e-6
-1.1995093371397221e-6
-2.942163849204364e-7
6.048685053526922e-7
1.45672195809314e-6
2.214684212891938e-6
2.851348101150158e-6
3.3766345359430285e-6
3.814604044831598e-6
4.163277374518759e-6
4.3959038233084e-6
4.503250346701557e-6
4.511356224134456e-6
4.447127019819516e-6
4.3045720159736085e-6
4.059011287716646e-6
3.7038933298783538e-6
3.2592190529649214e-6
2.746438156675266e-6
2.168857543651464e-6
1.5226795602585964e-6
8.172185654134352e-7
7.400603322354197e-8
-3.209974541084435e-6
-2.6536031825785246e-6
-1.8856628866169918e-6
-1.0560616781991496e-6
-2.9523737340046795e-7
3.110611038239006e-7
7.465570904549492e-7
1.0690135992689488e-6
1.3661754927848605e-6
1.6963187679832451e-6
2.067027297598674e-6
2.4538650075170926e-6
2.8174437247553134e-6
3.099340115094026e-6
3.2286120209357515e-6
3.167618145450399e-6
2.954093403398778e-6
2.6685257028254474e-6
2.3505874400750333e-6
1.9776210634877175e-6
1.5403466113361508e-6
1.1064378106030536e-6
7.787910827089131e-7
6.048008051277732e-7
5.490235324322197e-7
5.47975458297526e-7
5.691028237261666e-7
6.081111697916447e-7
6.499234134033498e-7
6.627107082605094e-7
6.299535599317768e-7
-2.1639660752682983e-6
-2.9548440858814913e-7
1.4481380633620457e-6
2.858763603862929e-6
3.818729912408972e-6
4.296572534669521e-6
4.337101133388581e-6
4.046114684615139e-6
3.562580196512484e-6
3.01597608817301e-6